# vtk DataFile Version 3.0
#This file was generated using MATLAB (c) MN
ASCII
DATASET UNSTRUCTURED_GRID

POINTS 200 double
0.000000    0.000000   0.000000
0.000000    0.222222   0.000000
0.000000    0.444444   0.000000
0.000000    0.666667   0.000000
0.000000    0.888889   0.000000
0.000000    1.111111   0.000000
0.000000    1.333333   0.000000
0.000000    1.555556   0.000000
0.000000    1.777778   0.000000
0.000000    2.000000   0.000000
0.000000    0.000000   2.000000
0.000000    0.222222   2.000000
0.000000    0.444444   2.000000
0.000000    0.666667   2.000000
0.000000    0.888889   2.000000
0.000000    1.111111   2.000000
0.000000    1.333333   2.000000
0.000000    1.555556   2.000000
0.000000    1.777778   2.000000
0.000000    2.000000   2.000000
0.222222    0.000000   0.000000
0.222222    0.222222   0.000000
0.222222    0.444444   0.000000
0.222222    0.666667   0.000000
0.222222    0.888889   0.000000
0.222222    1.111111   0.000000
0.222222    1.333333   0.000000
0.222222    1.555556   0.000000
0.222222    1.777778   0.000000
0.222222    2.000000   0.000000
0.222222    0.000000   2.000000
0.222222    0.222222   2.000000
0.222222    0.444444   2.000000
0.222222    0.666667   2.000000
0.222222    0.888889   2.000000
0.222222    1.111111   2.000000
0.222222    1.333333   2.000000
0.222222    1.555556   2.000000
0.222222    1.777778   2.000000
0.222222    2.000000   2.000000
0.444444    0.000000   0.000000
0.444444    0.222222   0.000000
0.444444    0.444444   0.000000
0.444444    0.666667   0.000000
0.444444    0.888889   0.000000
0.444444    1.111111   0.000000
0.444444    1.333333   0.000000
0.444444    1.555556   0.000000
0.444444    1.777778   0.000000
0.444444    2.000000   0.000000
0.444444    0.000000   2.000000
0.444444    0.222222   2.000000
0.444444    0.444444   2.000000
0.444444    0.666667   2.000000
0.444444    0.888889   2.000000
0.444444    1.111111   2.000000
0.444444    1.333333   2.000000
0.444444    1.555556   2.000000
0.444444    1.777778   2.000000
0.444444    2.000000   2.000000
0.666667    0.000000   0.000000
0.666667    0.222222   0.000000
0.666667    0.444444   0.000000
0.666667    0.666667   0.000000
0.666667    0.888889   0.000000
0.666667    1.111111   0.000000
0.666667    1.333333   0.000000
0.666667    1.555556   0.000000
0.666667    1.777778   0.000000
0.666667    2.000000   0.000000
0.666667    0.000000   2.000000
0.666667    0.222222   2.000000
0.666667    0.444444   2.000000
0.666667    0.666667   2.000000
0.666667    0.888889   2.000000
0.666667    1.111111   2.000000
0.666667    1.333333   2.000000
0.666667    1.555556   2.000000
0.666667    1.777778   2.000000
0.666667    2.000000   2.000000
0.888889    0.000000   0.000000
0.888889    0.222222   0.000000
0.888889    0.444444   0.000000
0.888889    0.666667   0.000000
0.888889    0.888889   0.000000
0.888889    1.111111   0.000000
0.888889    1.333333   0.000000
0.888889    1.555556   0.000000
0.888889    1.777778   0.000000
0.888889    2.000000   0.000000
0.888889    0.000000   2.000000
0.888889    0.222222   2.000000
0.888889    0.444444   2.000000
0.888889    0.666667   2.000000
0.888889    0.888889   2.000000
0.888889    1.111111   2.000000
0.888889    1.333333   2.000000
0.888889    1.555556   2.000000
0.888889    1.777778   2.000000
0.888889    2.000000   2.000000
1.111111    0.000000   0.000000
1.111111    0.222222   0.000000
1.111111    0.444444   0.000000
1.111111    0.666667   0.000000
1.111111    0.888889   0.000000
1.111111    1.111111   0.000000
1.111111    1.333333   0.000000
1.111111    1.555556   0.000000
1.111111    1.777778   0.000000
1.111111    2.000000   0.000000
1.111111    0.000000   2.000000
1.111111    0.222222   2.000000
1.111111    0.444444   2.000000
1.111111    0.666667   2.000000
1.111111    0.888889   2.000000
1.111111    1.111111   2.000000
1.111111    1.333333   2.000000
1.111111    1.555556   2.000000
1.111111    1.777778   2.000000
1.111111    2.000000   2.000000
1.333333    0.000000   0.000000
1.333333    0.222222   0.000000
1.333333    0.444444   0.000000
1.333333    0.666667   0.000000
1.333333    0.888889   0.000000
1.333333    1.111111   0.000000
1.333333    1.333333   0.000000
1.333333    1.555556   0.000000
1.333333    1.777778   0.000000
1.333333    2.000000   0.000000
1.333333    0.000000   2.000000
1.333333    0.222222   2.000000
1.333333    0.444444   2.000000
1.333333    0.666667   2.000000
1.333333    0.888889   2.000000
1.333333    1.111111   2.000000
1.333333    1.333333   2.000000
1.333333    1.555556   2.000000
1.333333    1.777778   2.000000
1.333333    2.000000   2.000000
1.555556    0.000000   0.000000
1.555556    0.222222   0.000000
1.555556    0.444444   0.000000
1.555556    0.666667   0.000000
1.555556    0.888889   0.000000
1.555556    1.111111   0.000000
1.555556    1.333333   0.000000
1.555556    1.555556   0.000000
1.555556    1.777778   0.000000
1.555556    2.000000   0.000000
1.555556    0.000000   2.000000
1.555556    0.222222   2.000000
1.555556    0.444444   2.000000
1.555556    0.666667   2.000000
1.555556    0.888889   2.000000
1.555556    1.111111   2.000000
1.555556    1.333333   2.000000
1.555556    1.555556   2.000000
1.555556    1.777778   2.000000
1.555556    2.000000   2.000000
1.777778    0.000000   0.000000
1.777778    0.222222   0.000000
1.777778    0.444444   0.000000
1.777778    0.666667   0.000000
1.777778    0.888889   0.000000
1.777778    1.111111   0.000000
1.777778    1.333333   0.000000
1.777778    1.555556   0.000000
1.777778    1.777778   0.000000
1.777778    2.000000   0.000000
1.777778    0.000000   2.000000
1.777778    0.222222   2.000000
1.777778    0.444444   2.000000
1.777778    0.666667   2.000000
1.777778    0.888889   2.000000
1.777778    1.111111   2.000000
1.777778    1.333333   2.000000
1.777778    1.555556   2.000000
1.777778    1.777778   2.000000
1.777778    2.000000   2.000000
2.000000    0.000000   0.000000
2.000000    0.222222   0.000000
2.000000    0.444444   0.000000
2.000000    0.666667   0.000000
2.000000    0.888889   0.000000
2.000000    1.111111   0.000000
2.000000    1.333333   0.000000
2.000000    1.555556   0.000000
2.000000    1.777778   0.000000
2.000000    2.000000   0.000000
2.000000    0.000000   2.000000
2.000000    0.222222   2.000000
2.000000    0.444444   2.000000
2.000000    0.666667   2.000000
2.000000    0.888889   2.000000
2.000000    1.111111   2.000000
2.000000    1.333333   2.000000
2.000000    1.555556   2.000000
2.000000    1.777778   2.000000
2.000000    2.000000   2.000000
CELLS 81 729
8	0	20	21	1	10	30	31	11
8	20	40	41	21	30	50	51	31
8	40	60	61	41	50	70	71	51
8	60	80	81	61	70	90	91	71
8	80	100	101	81	90	110	111	91
8	100	120	121	101	110	130	131	111
8	120	140	141	121	130	150	151	131
8	140	160	161	141	150	170	171	151
8	160	180	181	161	170	190	191	171
8	1	21	22	2	11	31	32	12
8	21	41	42	22	31	51	52	32
8	41	61	62	42	51	71	72	52
8	61	81	82	62	71	91	92	72
8	81	101	102	82	91	111	112	92
8	101	121	122	102	111	131	132	112
8	121	141	142	122	131	151	152	132
8	141	161	162	142	151	171	172	152
8	161	181	182	162	171	191	192	172
8	2	22	23	3	12	32	33	13
8	22	42	43	23	32	52	53	33
8	42	62	63	43	52	72	73	53
8	62	82	83	63	72	92	93	73
8	82	102	103	83	92	112	113	93
8	102	122	123	103	112	132	133	113
8	122	142	143	123	132	152	153	133
8	142	162	163	143	152	172	173	153
8	162	182	183	163	172	192	193	173
8	3	23	24	4	13	33	34	14
8	23	43	44	24	33	53	54	34
8	43	63	64	44	53	73	74	54
8	63	83	84	64	73	93	94	74
8	83	103	104	84	93	113	114	94
8	103	123	124	104	113	133	134	114
8	123	143	144	124	133	153	154	134
8	143	163	164	144	153	173	174	154
8	163	183	184	164	173	193	194	174
8	4	24	25	5	14	34	35	15
8	24	44	45	25	34	54	55	35
8	44	64	65	45	54	74	75	55
8	64	84	85	65	74	94	95	75
8	84	104	105	85	94	114	115	95
8	104	124	125	105	114	134	135	115
8	124	144	145	125	134	154	155	135
8	144	164	165	145	154	174	175	155
8	164	184	185	165	174	194	195	175
8	5	25	26	6	15	35	36	16
8	25	45	46	26	35	55	56	36
8	45	65	66	46	55	75	76	56
8	65	85	86	66	75	95	96	76
8	85	105	106	86	95	115	116	96
8	105	125	126	106	115	135	136	116
8	125	145	146	126	135	155	156	136
8	145	165	166	146	155	175	176	156
8	165	185	186	166	175	195	196	176
8	6	26	27	7	16	36	37	17
8	26	46	47	27	36	56	57	37
8	46	66	67	47	56	76	77	57
8	66	86	87	67	76	96	97	77
8	86	106	107	87	96	116	117	97
8	106	126	127	107	116	136	137	117
8	126	146	147	127	136	156	157	137
8	146	166	167	147	156	176	177	157
8	166	186	187	167	176	196	197	177
8	7	27	28	8	17	37	38	18
8	27	47	48	28	37	57	58	38
8	47	67	68	48	57	77	78	58
8	67	87	88	68	77	97	98	78
8	87	107	108	88	97	117	118	98
8	107	127	128	108	117	137	138	118
8	127	147	148	128	137	157	158	138
8	147	167	168	148	157	177	178	158
8	167	187	188	168	177	197	198	178
8	8	28	29	9	18	38	39	19
8	28	48	49	29	38	58	59	39
8	48	68	69	49	58	78	79	59
8	68	88	89	69	78	98	99	79
8	88	108	109	89	98	118	119	99
8	108	128	129	109	118	138	139	119
8	128	148	149	129	138	158	159	139
8	148	168	169	149	158	178	179	159
8	168	188	189	169	178	198	199	179

CELL_TYPES 81
    12    12    12    12    12    12    12    12    12    12    12    12    12    12    12    12    12    12    12    12    12    12    12    12    12    12    12    12    12    12    12    12    12    12    12    12    12    12    12    12    12    12    12    12    12    12    12    12    12    12    12    12    12    12    12    12    12    12    12    12    12    12    12    12    12    12    12    12    12    12    12    12    12    12    12    12    12    12    12    12    12
CELL_DATA 81
SCALARS elem_val double
LOOKUP_TABLE default